 215 215   0   0 WARNING: THis data is completely fake and should only be used for testing
  0.5674259E+01  0.1068520E-08  0.1068520E-08  0.1068520E-08  0.5000000E-15
  1.000000000000000E-004
  CAR 
 NV-Diamond Static                       
     26.29147078    -13.84691439  600     11.58299742      1.00000000
    -13.847  0.0000E+00  0.0000E+00  0.0000E+00  0.0000E+00
    
     24.013  0.1292E+00  0.1454E+00  0.6720E+03  0.6720E+03
     24.080  0.1366E+00  0.1075E+00  0.6720E+03  0.6720E+03
     24.147  0.1328E+00  0.8378E-01  0.6720E+03  0.6720E+03
     24.214  0.6275E-01  0.6561E-01  0.6720E+03  0.6720E+03
     24.281  0.1108E-02  0.0000E+00  0.6720E+03  0.6720E+03
     24.348  0.0000E+00  0.0000E+00  0.6720E+03  0.6720E+03
     24.415  0.0000E+00  0.0000E+00  0.6720E+03  0.6720E+03
     24.482  0.0000E+00  0.0000E+00  0.6720E+03  0.6720E+03
     24.549  0.0000E+00  0.0000E+00  0.6720E+03  0.6720E+03
     24.616  0.0000E+00  0.0000E+00  0.6720E+03  0.6720E+03
     24.683  0.0000E+00  0.0000E+00  0.6720E+03  0.6720E+03
     24.750  0.0000E+00  0.0000E+00  0.6720E+03  0.6720E+03
     24.817  0.0000E+00  0.0000E+00  0.6720E+03  0.6720E+03
     24.884  0.0000E+00  0.0000E+00  0.6720E+03  0.6720E+03
     24.951  0.0000E+00  0.0000E+00  0.6720E+03  0.6720E+03
     25.018  0.0000E+00  0.0000E+00  0.6720E+03  0.6720E+03
     25.085  0.0000E+00  0.0000E+00  0.6720E+03  0.6720E+03
     25.152  0.0000E+00  0.0000E+00  0.6720E+03  0.6720E+03
     25.219  0.0000E+00  0.0000E+00  0.6720E+03  0.6720E+03
     25.286  0.0000E+00  0.0000E+00  0.6720E+03  0.6720E+03
     25.353  0.0000E+00  0.0000E+00  0.6720E+03  0.6720E+03
     25.420  0.0000E+00  0.0000E+00  0.6720E+03  0.6720E+03
     25.487  0.0000E+00  0.0000E+00  0.6720E+03  0.6720E+03
     25.554  0.0000E+00  0.0000E+00  0.6720E+03  0.6720E+03
     25.621  0.0000E+00  0.0000E+00  0.6720E+03  0.6720E+03
     25.688  0.0000E+00  0.0000E+00  0.6720E+03  0.6720E+03
     25.755  0.0000E+00  0.0000E+00  0.6720E+03  0.6720E+03
     25.822  0.0000E+00  0.0000E+00  0.6720E+03  0.6720E+03
     25.889  0.0000E+00  0.0000E+00  0.6720E+03  0.6720E+03
     25.956  0.0000E+00  0.0000E+00  0.6720E+03  0.6720E+03
     26.023  0.0000E+00  0.0000E+00  0.6720E+03  0.6720E+03
     26.090  0.0000E+00  0.0000E+00  0.6720E+03  0.6720E+03
     26.157  0.0000E+00  0.0000E+00  0.6720E+03  0.6720E+03
     26.224  0.0000E+00  0.0000E+00  0.6720E+03  0.6720E+03
     26.291  0.0000E+00  0.0000E+00  0.6720E+03  0.6720E+03
