  215  215    1    2 WARNING: this data is completely fake and should only be used for testing purposes
  0.5674259E+01  0.1068520E-08  0.1068520E-08  0.1068520E-08  0.5000000E-15
  1.000000000000000E-004
  CAR 
 NV-Diamond Static                       
  862   65  672
 
  0.0000000E+00  0.0000000E+00  0.0000000E+00  0.1953125E-02
   1      -11.846914    -11.841688
   2      -11.018438    -11.015168
   3      -10.832879    -10.830139
   4      -10.832879    -10.830139
   5      -10.789993    -10.782986
   6      -10.789993    -10.782986
   7      -10.706523    -10.695231
   8      -10.173049    -10.169625
   9       -9.826879     -9.824642
  10       -9.826879     -9.824642
  11       -9.818195     -9.815904
  12       -9.818195     -9.815904
  13       -9.805112     -9.800592
  14       -9.780698     -9.774401
  15       -9.780698     -9.774401
  16       -9.770145     -9.766835
  17       -9.725683     -9.709588
  18       -9.725682     -9.709588
  19       -9.553461     -9.531377
  20       -9.052470     -9.047830
  21       -8.797114     -8.792321
  22       -8.791455     -8.785221
  23       -8.791455     -8.785221
  24       -8.768349     -8.761870
  25       -8.766039     -8.751177
  26       -8.766039     -8.751177
  27       -8.605204     -8.581860
  28       -7.990749     -7.979182
  29       -7.798564     -7.793161
  30       -7.798564     -7.793161
  31       -7.777408     -7.767720
  32       -7.777408     -7.767720
  33       -7.719168     -7.711373
  34       -7.394539     -7.382286
  35       -6.903385     -6.900118
  36       -6.903385     -6.900118
  37       -6.895495     -6.894604
  38       -6.894778     -6.891890
  39       -6.894778     -6.891890
  40       -6.880932     -6.877613
  41       -6.879507     -6.875756
  42       -6.879506     -6.875756
  43       -6.868812     -6.867342
  44       -6.862360     -6.860042
  45       -6.862360     -6.860042
  46       -6.855534     -6.851686
  47       -6.855534     -6.851582
  48       -6.854275     -6.851582
  49       -6.827444     -6.816070
  50       -6.827444     -6.816070
  51       -6.816040     -6.805247
  52       -6.813032     -6.802799
  53       -6.813032     -6.802799
  54       -6.790847     -6.787646
  55       -6.728385     -6.702973
  56       -6.728385     -6.702973
  57       -6.549399     -6.537060
  58       -6.349979     -6.346429
  59       -6.124366     -6.122300
  60       -6.124366     -6.122300
  61       -6.093135     -6.090714
  62       -6.092453     -6.088079
  63       -6.092453     -6.088079
  64       -6.080260     -6.077913
  65       -6.074305     -6.070545
  66       -6.074305     -6.070545
  67       -6.070673     -6.062313
  68       -6.062989     -6.056749
  69       -6.062988     -6.056749
  70       -6.042678     -6.035141
  71       -6.038872     -6.033780
  72       -6.038872     -6.033780
  73       -6.020726     -6.016532
  74       -6.020726     -6.016532
  75       -5.991324     -5.980306
  76       -5.986062     -5.973638
  77       -5.986062     -5.973638
  78       -5.950618     -5.941569
  79       -5.843394     -5.779743
  80       -5.843394     -5.779743
  81       -5.168054     -5.108167
  82       -4.573702     -4.565792
  83       -4.407394     -4.403440
  84       -4.407394     -4.403440
  85       -4.370808     -4.361609
  86       -4.370808     -4.361609
  87       -4.363144     -4.358895
  88       -4.360349     -4.354318
  89       -4.360349     -4.354318
  90       -4.349332     -4.343479
  91       -4.305753     -4.274701
  92       -4.305753     -4.274701
  93       -3.955536     -3.896970
  94       -3.155962     -3.143560
  95       -3.101961     -3.098341
  96       -3.101961     -3.098341
  97       -3.079673     -3.072377
  98       -3.079672     -3.072377
  99       -3.040653     -3.034288
 100       -2.822771     -2.803800
 101       -2.641367     -2.638308
 102       -2.641367     -2.638308
 103       -2.597779     -2.597349
 104       -2.590877     -2.589224
 105       -2.590877     -2.589224
 106       -2.580716     -2.577957
 107       -2.580716     -2.577956
 108       -2.578537     -2.576600
 109       -2.578296     -2.576247
 110       -2.560857     -2.556484
 111       -2.560856     -2.556484
 112       -2.551716     -2.548837
 113       -2.551716     -2.548837
 114       -2.532543     -2.525968
 115       -2.498866     -2.488099
 116       -2.487522     -2.479190
 117       -2.487522     -2.479190
 118       -2.460388     -2.454476
 119       -2.460242     -2.452116
 120       -2.460242     -2.452115
 121       -2.442281     -2.424690
 122       -2.442281     -2.424689
 123       -2.416695     -2.413461
 124       -2.395695     -2.392222
 125       -2.395695     -2.392222
 126       -2.388973     -2.382973
 127       -2.377381     -2.374477
 128       -2.374903     -2.370595
 129       -2.374903     -2.370595
 130       -2.370317     -2.367649
 131       -2.367035     -2.360631
 132       -2.367035     -2.360631
 133       -2.354937     -2.345887
 134       -2.343820     -2.339193
 135       -2.343820     -2.339193
 136       -2.322725     -2.317056
 137       -2.322725     -2.317056
 138       -2.318565     -2.311270
 139       -2.313031     -2.306490
 140       -2.313031     -2.306490
 141       -2.309997     -2.287880
 142       -2.309997     -2.287880
 143       -2.296433     -2.261678
 144       -2.079388     -2.064033
 145       -1.963632     -1.911616
 146       -1.963632     -1.911616
 147       -1.557817     -1.536175
 148       -1.297154     -1.289879
 149       -1.295368     -1.289879
 150       -1.295368     -1.280730
 151       -1.251202     -1.248501
 152       -1.249464     -1.245701
 153       -1.249464     -1.245701
 154       -1.240819     -1.231065
 155       -1.221700     -1.215892
 156       -1.221700     -1.215891
 157       -1.096247     -1.037259
 158       -1.096247     -1.037259
 159       -0.144067     -0.076561
 160        0.210904      0.216353
 161        0.210904      0.216353
 162        0.228891      0.238306
 163        0.281174      0.282822
 164        0.289042      0.292840
 165        0.289042      0.292840
 166        0.294095      0.297285
 167        0.294095      0.297285
 168        0.295484      0.300208
 169        0.297515      0.302256
 170        0.298356      0.307888
 171        0.316966      0.322742
 172        0.316966      0.322742
 173        0.325408      0.334402
 174        0.338313      0.348648
 175        0.338313      0.348648
 176        0.458443      0.473465
 177        0.458443      0.473465
 178        0.467725      0.478784
 179        0.501824      0.522299
 180        0.875059      0.881312
 181        0.875059      0.881312
 182        0.896838      0.917312
 183        0.973561      0.974326
 184        0.978771      0.982159
 185        0.980330      0.982442
 186        0.980330      0.982442
 187        0.983985      0.990277
 188        0.983985      0.990277
 189        0.993937      0.997735
 190        0.993937      0.997735
 191        0.995338      0.998790
 192        1.005390      1.010640
 193        1.005390      1.010640
 194        1.010303      1.022582
 195        1.015947      1.022582
 196        1.015948      1.022805
 197        1.029151      1.039156
 198        1.039250      1.050879
 199        1.039250      1.051611
 200        1.040985      1.051611
 201        1.232593      1.289735
 202        1.232593      1.289735
 203        1.751525      1.755871
 204        1.751526      1.755871
 205        1.762285      1.776051
 206        1.814461      1.816096
 207        1.814728      1.816096
 208        1.814728      1.817935
 209        1.818654      1.820023
 210        1.825087      1.827739
 211        1.825087      1.827739
 212        1.836498      1.840578
 213        1.836498      1.840578
 214        1.843178      1.845563
 215        1.855233      1.858624
 216        1.855233      1.858624
 217        1.907339      1.913900
 218        1.907339      1.913900
 219        1.912293      1.921279
 220        1.921242      1.929025
 221        1.928132      1.935924
 222        1.961125      1.974152
 223        1.961125      1.974153
 224        2.028461      2.031268
 225        2.043837      2.054233
 226        2.043837      2.054233
 227        2.115396      2.152774
 228        2.250458      2.255685
 229        2.250458      2.255685
 230        2.341020      2.349142
 231        2.347159      2.349142
 232        2.347159      2.351693
 233        2.360427      2.365357
 234        2.363390      2.366606
 235        2.363390      2.366606
 236        2.369416      2.374328
 237        2.371426      2.378628
 238        2.371426      2.378628
 239        2.377562      2.384521
 240        2.387883      2.395389
 241        2.393068      2.397625
 242        2.393068      2.397625
 243        2.413229      2.425895
 244        2.413229      2.425895
 245        2.422603      2.427744
 246        2.425803      2.437803
 247        2.442092      2.455909
 248        2.442092      2.455909
 249        2.470360      2.490983
 250        2.490416      2.506028
 251        2.490416      2.506028
 252        2.542308      2.552989
 253        2.542308      2.552989
 254        2.806090      2.828300
 255        2.848159      2.891238
 256        2.848159      2.891238
 257        3.361761      3.368004
 258        3.361761      3.368004
 259        3.420957      3.429857
 260        3.444284      3.452168
 261        3.453490      3.470439
 262        3.453490      3.470439
 263        3.555530      3.632091
 264        3.904021      3.915967
 265        3.904021      3.915967
 266        3.984912      3.991365
 267        3.988755      3.991366
 268        3.988755      3.992892
 269        4.002737      4.007283
 270        4.004638      4.012125
 271        4.004638      4.012125
 272        4.028464      4.043143
 273        4.082211      4.096915
 274        4.082211      4.096915
 275        4.245285      4.249572
 276        4.245285      4.249572
 277        4.359654      4.372003
 278        4.386474      4.391519
 279        4.386764      4.391519
 280        4.388099      4.391700
 281        4.388099      4.406499
 282        4.394930      4.406499
 283        4.394930      4.411642
 284        4.421078      4.430236
 285        4.449882      4.459805
 286        4.449882      4.459805
 287        4.456486      4.470111
 288        4.600127      4.609378
 289        4.600128      4.609378
 290        4.625371      4.628195
 291        4.652977      4.655673
 292        4.656918      4.659212
 293        4.656918      4.659212
 294        4.669609      4.672346
 295        4.674804      4.676452
 296        4.674804      4.676453
 297        4.676099      4.678858
 298        4.676099      4.678858
 299        4.684338      4.686593
 300        4.684863      4.689243
 301        4.690526      4.693050
 302        4.690526      4.693050
 303        4.721563      4.727027
 304        4.721563      4.727027
 305        4.730938      4.739173
 306        4.730938      4.739173
 307        4.736603      4.741419
 308        4.740042      4.749855
 309        4.740042      4.749855
 310        4.746745      4.751431
 311        4.797453      4.802813
 312        4.797453      4.802813
 313        4.820004      4.827285
 314        4.846661      4.858352
 315        4.857295      4.859763
 316        4.858874      4.860884
 317        4.858874      4.860884
 318        4.863071      4.865851
 319        4.865867      4.867913
 320        4.865867      4.867913
 321        4.867259      4.870625
 322        4.867259      4.870625
 323        4.875723      4.879275
 324        4.877764      4.881106
 325        4.880600      4.884149
 326        4.880600      4.884149
 327        4.886264      4.890334
 328        4.886264      4.890334
 329        4.886528      4.890481
 330        4.889748      4.895598
 331        4.889749      4.895598
 332        4.900779      4.906298
 333        4.901101      4.906298
 334        4.901101      4.906597
 335        4.907523      4.923304
 336        4.914901      4.925473
 337        4.914901      4.925473
 338        4.918553      4.926228
 339        4.937688      4.947619
 340        4.937688      4.947619
 341        4.947274      4.955048
 342        4.955847      4.964302
 343        4.955847      4.964302
 344        4.974063      4.979750
 345        4.974063      4.979750
 346        5.003981      5.021542
 347        5.009724      5.021542
 348        5.009724      5.026696
 349        5.034335      5.051559
 350        5.059740      5.072288
 351        5.059740      5.080828
 352        5.066548      5.080828
 353        5.077385      5.091080
 354        5.162594      5.200495
 355        5.162594      5.200495
 356        5.443217      5.454612
 357        5.450413      5.468948
 358        5.450413      5.468948
 359        5.625818      5.631242
 360        5.625819      5.631242
 361        5.690753      5.693049
 362        5.690753      5.693049
 363        5.690811      5.693234
 364        5.698132      5.700124
 365        5.726212      5.731408
 366        5.727642      5.731409
 367        5.727642      5.732369
 368        5.731598      5.739933
 369        5.748771      5.755675
 370        5.748771      5.755675
 371        5.759169      5.768103
 372        5.759169      5.772451
 373        5.760559      5.772451
 374        5.768116      5.786352
 375        5.768116      5.786353
 376        5.788575      5.794064
 377        5.826378      5.853180
 378        5.826378      5.853180
 379        5.890576      5.925114
 380        6.560867      6.577155
 381        6.674845      6.744591
 382        6.674845      6.744591
 383        6.989293      7.080054
 384        7.067221      7.080054
 385        7.067221      7.120592
 386        7.118483      7.120592
 387        7.118483      7.127158
 388        7.121872      7.128536
 389        7.138037      7.141204
 390        7.144012      7.157825
 391        7.144012      7.157825
 392        7.147262      7.175178
 393        7.218072      7.223744
 394        7.218072      7.223744
 395        7.229688      7.238030
 396        7.319905      7.324289
 397        7.319905      7.324289
 398        7.379878      7.386654
 399        7.384460      7.388209
 400        7.384460      7.388209
 401        7.390068      7.396000
 402        7.390068      7.396000
 403        7.396851      7.409080
 404        7.396851      7.409373
 405        7.403690      7.409373
 406        7.421351      7.434998
 407        7.421351      7.434998
 408        7.453431      7.464561
 409        7.454006      7.467065
 410        7.454379      7.467065
 411        7.454379      7.472216
 412        7.485673      7.492515
 413        7.485673      7.492515
 414        8.054803      8.066595
 415        8.076290      8.106150
 416        8.076290      8.106150
 417        8.305972      8.313042
 418        8.305972      8.313042
 419        8.318702      8.320512
 420        8.342092      8.346232
 421        8.343004      8.347884
 422        8.343004      8.347884
 423        8.349577      8.382662
 424        8.369095      8.420306
 425        8.404224      8.420306
 426        8.404224      8.693312
 427        9.491770      9.605460
 428        9.588124      9.627970
 429        9.588124      9.627970
 430       10.434864     10.953970
 431       11.581752     12.856233
 432       11.581752     12.856234
 433       13.872859     13.877027
 434       13.872860     13.877028
 435       13.888805     13.899612
 436       13.925170     13.937209
 437       13.925171     13.937209
 438       13.948656     13.958090
 439       14.437092     14.442369
 440       14.505620     14.513961
 441       14.505620     14.513961
 442       14.521786     14.528617
 443       14.521786     14.528617
 444       14.584666     14.593810
 445       14.663865     14.668731
 446       14.663865     14.668731
 447       14.713837     14.740288
 448       14.764008     14.782203
 449       14.764008     14.782203
 450       14.781538     14.791020
 451       15.401045     15.420233
 452       15.401045     15.420234
 453       15.423499     15.433327
 454       15.967625     15.976226
 455       16.050477     16.053903
 456       16.050477     16.053903
 457       16.065898     16.068679
 458       16.097526     16.107827
 459       16.097526     16.107827
 460       16.109899     16.115860
 461       16.109899     16.115860
 462       16.122779     16.126966
 463       16.128818     16.134379
 464       16.128819     16.134379
 465       16.168172     16.174956
 466       16.608231     16.612713
 467       16.779741     16.782472
 468       16.779741     16.782472
 469       16.810805     16.812653
 470       16.814090     16.817174
 471       16.814090     16.817174
 472       16.820398     16.822605
 473       16.820562     16.824488
 474       16.820562     16.824488
 475       16.827533     16.835825
 476       16.827533     16.835825
 477       16.842040     16.848229
 478       16.848170     16.853728
 479       16.848170     16.853728
 480       16.852290     16.855547
 481       16.876771     16.883263
 482       16.877510     16.886751
 483       16.877510     16.886751
 484       16.922631     16.930465
 485       16.922631     16.930465
 486       16.935305     16.943467
 487       16.961294     16.969678
 488       16.961294     16.969678
 489       16.963229     16.972275
 490       17.245704     17.250322
 491       17.283563     17.289568
 492       17.283563     17.289568
 493       17.322839     17.324781
 494       17.325727     17.327705
 495       17.340187     17.342212
 496       17.340187     17.342212
 497       17.346913     17.349716
 498       17.349298     17.351461
 499       17.349298     17.351461
 500       17.361490     17.363957
 501       17.361490     17.363957
 502       17.380259     17.382317
 503       17.392338     17.395704
 504       17.392338     17.395704
 505       17.415542     17.419541
 506       17.417946     17.421572
 507       17.417946     17.421572
 508       17.431555     17.435397
 509       17.431555     17.435397
 510       17.433354     17.439709
 511       17.435570     17.442264
 512       17.459282     17.464353
 513       17.459282     17.470075
 514       17.460731     17.470075
 515       17.468317     17.479840
 516       17.468317     17.479840
 517       17.471812     17.487437
 518       17.471812     17.487438
 519       17.492743     17.499788
 520       17.492743     17.499788
 521       17.498476     17.502629
 522       17.509437     17.515668
 523       17.509437     17.515668
 524       17.532156     17.538493
 525       17.534800     17.547370
 526       17.609241     17.617069
 527       17.610251     17.617069
 528       17.610251     17.622578
 529       17.677913     17.685722
 530       17.677913     17.685722
 531       17.690906     17.697040
 532       17.805059     17.809545
 533       17.887956     17.893370
 534       17.887956     17.893371
 535       17.903363     17.907593
 536       17.931873     17.935423
 537       17.931873     17.935423
 538       17.936542     17.940672
 539       17.937433     17.940959
 540       17.937434     17.940959
 541       17.943104     17.946631
 542       17.952582     17.959640
 543       17.952582     17.959640
 544       17.968139     17.973315
 545       17.968139     17.973315
 546       17.983104     17.988250
 547       17.994149     18.000761
 548       17.994149     18.000761
 549       18.008622     18.015952
 550       18.011089     18.015952
 551       18.011089     18.015978
 552       18.014902     18.019589
 553       18.022097     18.032811
 554       18.022097     18.032811
 555       18.036287     18.043064
 556       18.038247     18.043064
 557       18.038247     18.043271
 558       18.045803     18.065736
 559       18.045803     18.065736
 560       18.063620     18.071015
 561       18.063620     18.071015
 562       18.067616     18.080524
 563       18.072669     18.088303
 564       18.095918     18.124049
 565       18.095919     18.124049
 566       18.128544     18.161778
 567       18.247481     18.252665
 568       18.250720     18.261872
 569       18.250720     18.261872
 570       18.282670     18.285724
 571       18.295610     18.299038
 572       18.295610     18.301781
 573       18.296978     18.301781
 574       18.308095     18.315704
 575       18.311045     18.319289
 576       18.311045     18.319289
 577       18.317087     18.324603
 578       18.317087     18.324603
 579       18.355397     18.365778
 580       18.375761     18.380109
 581       18.375761     18.380109
 582       18.393903     18.399769
 583       18.423540     18.446190
 584       18.447489     18.468335
 585       18.447489     18.468336
 586       18.577225     18.604694
 587       18.577225     18.607672
 588       18.596789     18.607672
 589       18.600385     18.613035
 590       18.600385     18.613035
 591       18.755491     18.758445
 592       18.755491     18.758445
 593       18.762683     18.765165
 594       18.804334     18.817145
 595       18.804334     18.817145
 596       18.827906     18.839192
 597       18.834770     18.843734
 598       18.834770     18.843734
 599       18.839624     18.844945
 600       18.953010     18.965800
 601       18.975264     18.984890
 602       18.975264     18.984890
 603       19.028401     19.042183
 604       19.097017     19.104774
 605       19.097017     19.104774
 606       19.113424     19.121209
 607       19.123661     19.127440
 608       19.123662     19.127441
 609       19.296324     19.314236
 610       19.296571     19.338303
 611       19.296572     19.338307
 612       19.430342     19.495754
 613       19.566802     19.584112
 614       19.566831     19.584137
 615       19.578916     19.599624
 616       19.696034     19.701907
 617       19.696067     19.701955
 618       19.705989     19.708343
 619       19.712932     19.715672
 620       19.712982     19.715757
 621       19.721679     19.726727
 622       19.721706     19.726763
 623       19.731138     19.737828
 624       19.737520     19.740155
 625       19.737564     19.740270
 626       19.738623     19.743630
 627       19.753323     19.759771
 628       19.780612     19.792284
 629       19.797589     19.813970
 630       19.797742     19.814106
 631       19.808461     19.831369
 632       19.863367     19.895242
 633       19.893355     19.949396
 634       19.893552     19.949965
 635       19.951082     19.976235
 636       19.951247     19.978702
 637       20.039202     20.056546
 638       20.060249     20.096918
 639       20.066020     20.100537
 640       20.431078     20.439271
 641       20.436743     20.446524
 642       20.445403     20.452557
 643       20.452214     20.460962
 644       20.463821     20.466496
 645       20.470300     20.475597
 646       20.478936     20.491602
 647       20.490310     20.499393
 648       20.497337     20.514093
 649       20.502909     20.517559
 650       20.512259     20.524509
 651       20.523010     20.534862
 652       20.546612     20.557098
 653       20.554035     20.568241
 654       20.579676     20.610105
 655       20.609445     20.640058
 656       20.639985     20.680523
 657       20.688899     20.770241
 658       20.768924     20.798753
 659       20.811846     20.856984
 660       20.877593     20.918161
 661       20.940903     20.939018
 662       20.970718     20.972410
 663       20.984749     21.002896
 664       21.012268     21.032456
 665       21.068187     21.050274
 666       21.076350     21.088770
 667       21.136603     21.115898
 668       23.630235     23.704316
 669       23.706743     23.765620
 670       23.878648     23.886162
 671       23.946119     23.922918
 672       24.035351     24.100925
 
  0.1250000E+00  0.0000000E+00  0.0000000E+00  0.1171875E-01
   1      -11.831400    -11.826217
   2      -11.102617    -11.098353
   3      -10.915677    -10.911061
   4      -10.817155    -10.814418
   5      -10.774497    -10.767572
   6      -10.733189    -10.724901
   7      -10.548431    -10.541979
   8      -10.221370    -10.216895
   9      -10.054277    -10.051581
  10      -10.009782    -10.002069
  11       -9.981742     -9.974684
  12       -9.867218     -9.862939
  13       -9.766762     -9.759796
  14       -9.761398     -9.752969
  15       -9.713250     -9.703668
  16       -9.584236     -9.577833
  17       -9.552318     -9.549423
  18       -9.502350     -9.492734
  19       -9.424010     -9.408543
  20       -9.137767     -9.132059
  21       -9.013990     -9.004945
  22       -9.007132     -8.996403
  23       -8.928288     -8.913232
  24       -8.645225     -8.639186
  25       -8.526418     -8.517227
  26       -8.521089     -8.510648
  27       -8.445384     -8.429788
  28       -8.261513     -8.251826
  29       -7.922231     -7.910953
  30       -7.783982     -7.778612
  31       -7.763079     -7.753518
  32       -7.732182     -7.724627
  33       -7.520716     -7.509827
  34       -7.346187     -7.343507
  35       -7.306975     -7.300972
  36       -7.302830     -7.295744
  37       -7.251248     -7.244603
  38       -7.158950     -7.148572
  39       -7.074584     -7.069487
  40       -7.052633     -7.043290
  41       -7.028263     -7.022173
  42       -6.969793     -6.965814
  43       -6.869077     -6.865998
  44       -6.850479     -6.845792
  45       -6.846728     -6.843319
  46       -6.842267     -6.835024
  47       -6.812691     -6.799165
  48       -6.786374     -6.775714
  49       -6.753977     -6.747985
  50       -6.685245     -6.681703
  51       -6.612061     -6.606250
  52       -6.583509     -6.569878
  53       -6.561176     -6.554464
  54       -6.511914     -6.506585
  55       -6.452830     -6.446773
  56       -6.446301     -6.438249
  57       -6.425580     -6.417907
  58       -6.397201     -6.394472
  59       -6.383686     -6.375143
  60       -6.352524     -6.344472
  61       -6.313934     -6.307435
  62       -6.250703     -6.241738
  63       -6.243652     -6.240041
  64       -6.220788     -6.216770
  65       -6.215657     -6.207565
  66       -6.214945     -6.206100
  67       -6.174984     -6.155870
  68       -6.140665     -6.122503
  69       -6.032747     -6.022220
  70       -5.974093     -5.970325
  71       -5.893591     -5.889516
  72       -5.883152     -5.876970
  73       -5.875971     -5.871725
  74       -5.868268     -5.856752
  75       -5.826848     -5.809750
  76       -5.796457     -5.769511
  77       -5.719916     -5.704986
  78       -5.659574     -5.652752
  79       -5.605524     -5.578376
  80       -5.602393     -5.575740
  81       -5.147083     -5.098163
  82       -4.785516     -4.775681
  83       -4.722260     -4.715477
  84       -4.693885     -4.677687
  85       -4.593784     -4.575002
  86       -4.444126     -4.435481
  87       -4.368097     -4.354644
  88       -4.363761     -4.353560
  89       -4.247514     -4.224714
  90       -4.080692     -4.068691
  91       -4.035492     -4.028845
  92       -4.007468     -3.990664
  93       -3.874827     -3.842925
  94       -3.710540     -3.694084
  95       -3.186892     -3.171230
  96       -3.132670     -3.130001
  97       -3.095018     -3.090325
  98       -3.093095     -3.089541
  99       -3.083713     -3.075779
 100       -3.069986     -3.063699
 101       -3.063603     -3.055102
 102       -3.000403     -2.986717
 103       -2.811094     -2.799373
 104       -2.759246     -2.756210
 105       -2.705846     -2.701855
 106       -2.704159     -2.700973
 107       -2.701795     -2.696840
 108       -2.688851     -2.683610
 109       -2.686598     -2.682089
 110       -2.678066     -2.669745
 111       -2.667027     -2.661491
 112       -2.662425     -2.658058
 113       -2.653472     -2.648737
 114       -2.650111     -2.643126
 115       -2.633683     -2.627244
 116       -2.630041     -2.624076
 117       -2.590167     -2.575980
 118       -2.547729     -2.538302
 119       -2.529812     -2.523555
 120       -2.489581     -2.481843
 121       -2.477711     -2.471644
 122       -2.465697     -2.456866
 123       -2.452193     -2.446194
 124       -2.438078     -2.433250
 125       -2.424298     -2.418836
 126       -2.418796     -2.413049
 127       -2.410662     -2.405641
 128       -2.389706     -2.381463
 129       -2.378262     -2.358872
 130       -2.303447     -2.268931
 131       -2.199489     -2.182620
 132       -2.128288     -2.122188
 133       -2.110731     -2.103188
 134       -2.109919     -2.101275
 135       -2.064350     -2.058184
 136       -2.015439     -2.012323
 137       -1.976433     -1.969489
 138       -1.974550     -1.963253
 139       -1.954150     -1.950057
 140       -1.953580     -1.941243
 141       -1.941572     -1.937336
 142       -1.937504     -1.926156
 143       -1.931848     -1.921210
 144       -1.872422     -1.855265
 145       -1.827215     -1.805713
 146       -1.786393     -1.759087
 147       -1.584498     -1.570982
 148       -1.495657     -1.484655
 149       -1.477424     -1.471171
 150       -1.442459     -1.433131
 151       -1.436442     -1.428156
 152       -1.411255     -1.404600
 153       -1.341307     -1.310139
 154       -1.324549     -1.287254
 155       -1.087388     -1.073219
 156       -1.015191     -1.008597
 157       -1.000181     -0.971580
 158       -0.946315     -0.911384
 159       -0.266154     -0.224902
 160       -0.151155     -0.137508
 161       -0.108818     -0.100547
 162       -0.095328     -0.086339
 163        0.071127      0.103243
 164        0.210584      0.215428
 165        0.227087      0.231984
 166        0.255738      0.262034
 167        0.266471      0.276680
 168        0.404322      0.409892
 169        0.408243      0.412908
 170        0.449376      0.454897
 171        0.451598      0.456728
 172        0.496320      0.503040
 173        0.528189      0.538097