WARNING: this data is completely fake and should only be used for testing purposes
       N       E                     dE             d eps       ncg     rms          rms(c)
RMM:   1     0.590939156357E+04    0.59094E+04   -0.27728E+05 87360   0.838E+02
RMM:   2     0.217133177752E+03   -0.56923E+04   -0.53879E+04 87360   0.207E+02

RMM:  16    -0.193679414328E+04   -0.15790E+00   -0.31298E-01213317   0.865E-01    0.189E+00
RMM:  17    -0.193677885659E+04    0.15287E-01   -0.21586E-01212994   0.496E-01    0.474E-01
   1 F= -.19367707E+04 E0= -.19367707E+04  d E =0.000000E+00  mag=     2.0005
